<?xml version="1.0" encoding="UTF-8"?>

<!-- generated on 2026-03-11T13:40:49.800994+00:00 by Eclipse SUMO GUI 1.26.0
<sumoConfiguration xmlns:xsi="http://www.w3.org/2001/XMLSchema-instance" xsi:noNamespaceSchemaLocation="http://sumo.dlr.de/xsd/sumoConfiguration.xsd">

    <input>
        <net-file value="C:\Users\pc\Desktop\Agent Carrefour Projet\sumo\osm.net.xml"/>
        <route-files value="C:\Users\pc\Desktop\Agent Carrefour Projet\sumo\osm.passenger.trips.xml"/>
        <additional-files value="C:\Users\pc\Desktop\Agent Carrefour Projet\sumo\osm.poly.xml.gz,C:\Users\pc\Desktop\Agent Carrefour Projet\sumo\output.add.xml"/>
    </input>

    <output>
        <tripinfo-output value="C:\Users\pc\Desktop\Agent Carrefour Projet\sumo\tripinfos.xml"/>
        <statistic-output value="C:\Users\pc\Desktop\Agent Carrefour Projet\sumo\stats.xml"/>
    </output>

    <processing>
        <ignore-route-errors value="true"/>
        <tls.actuated.jam-threshold value="30"/>
    </processing>

    <routing>
        <device.rerouting.adaptation-steps value="18"/>
        <device.rerouting.adaptation-interval value="10"/>
    </routing>

    <report>
        <verbose value="true"/>
        <duration-log.statistics value="true"/>
        <no-step-log value="true"/>
    </report>

    <traci_server>
        <remote-port value="57754"/>
    </traci_server>

    <gui_only>
        <gui-settings-file value="C:\Users\pc\Desktop\Agent Carrefour Projet\sumo\osm.view.xml"/>
        <start value="true"/>
    </gui_only>

</sumoConfiguration>
-->

<meandata xmlns:xsi="http://www.w3.org/2001/XMLSchema-instance" xsi:noNamespaceSchemaLocation="http://sumo.dlr.de/xsd/meandata_file.xsd">
    <interval begin="0.00" end="2506.00" id="wizard_example">
        <edge id="-215135068" sampledSeconds="0.00" departed="0" arrived="0" entered="0" left="0" laneChangedFrom="0" laneChangedTo="0"/>
        <edge id="-414519478" sampledSeconds="40.77" traveltime="7.78" overlapTraveltime="8.15" density="0.17" overlapDensity="0.18" laneDensity="0.17" occupancy="0.08" waitingTime="0.00" timeLoss="6.38" speed="11.87" speedRelative="0.85" departed="0" arrived="5" entered="5" left="0" laneChangedFrom="0" laneChangedTo="0" flow="7.18"/>
        <edge id="1312222682#1" sampledSeconds="232.02" traveltime="20.90" overlapTraveltime="21.09" density="0.19" overlapDensity="0.19" laneDensity="0.10" occupancy="0.05" waitingTime="0.00" timeLoss="31.25" speed="22.79" speedRelative="0.82" departed="0" arrived="11" entered="11" left="0" laneChangedFrom="0" laneChangedTo="0" flow="15.80"/>
        <edge id="1312222683#0" sampledSeconds="466.90" traveltime="23.70" overlapTraveltime="24.84" density="0.38" overlapDensity="0.40" laneDensity="0.19" occupancy="0.10" waitingTime="54.00" timeLoss="140.39" speed="19.01" speedRelative="0.68" departed="19" arrived="0" entered="0" left="19" laneChangedFrom="1" laneChangedTo="1" flow="27.00"/>
        <edge id="215078584#0" sampledSeconds="91.62" traveltime="9.77" overlapTraveltime="10.58" density="0.24" overlapDensity="0.26" laneDensity="0.12" occupancy="0.06" waitingTime="14.00" timeLoss="42.79" speed="13.75" speedRelative="0.49" departed="9" arrived="0" entered="0" left="9" laneChangedFrom="0" laneChangedTo="0" flow="12.46"/>
        <edge id="215135062#0" sampledSeconds="471.62" traveltime="46.24" overlapTraveltime="47.60" density="0.33" overlapDensity="0.34" laneDensity="0.17" occupancy="0.08" waitingTime="93.00" timeLoss="143.16" speed="11.62" speedRelative="0.70" departed="10" arrived="0" entered="0" left="10" laneChangedFrom="2" laneChangedTo="2" flow="14.23"/>
        <edge id="215135062#3" sampledSeconds="254.06" traveltime="25.12" overlapTraveltime="25.44" density="0.27" overlapDensity="0.27" laneDensity="0.13" occupancy="0.07" waitingTime="0.00" timeLoss="22.51" speed="14.95" speedRelative="0.90" departed="0" arrived="10" entered="10" left="0" laneChangedFrom="1" laneChangedTo="1" flow="14.37"/>
        <edge id="215135068" sampledSeconds="18.18" traveltime="8.89" overlapTraveltime="9.26" density="0.06" overlapDensity="0.06" laneDensity="0.06" occupancy="0.03" waitingTime="0.00" timeLoss="3.01" speed="12.61" speedRelative="0.91" departed="0" arrived="2" entered="2" left="0" laneChangedFrom="0" laneChangedTo="0" flow="2.87"/>
        <edge id="414519478" sampledSeconds="0.00" departed="0" arrived="0" entered="0" left="0" laneChangedFrom="0" laneChangedTo="0"/>
        <edge id="708510054#0" sampledSeconds="81.18" traveltime="4.43" overlapTraveltime="4.78" density="0.52" overlapDensity="0.57" laneDensity="0.26" occupancy="0.13" waitingTime="0.00" timeLoss="40.97" speed="13.05" speedRelative="0.47" departed="0" arrived="3" entered="17" left="14" laneChangedFrom="1" laneChangedTo="1" flow="24.42"/>
        <edge id="708510054#1" sampledSeconds="41.44" traveltime="3.27" overlapTraveltime="3.47" density="0.22" overlapDensity="0.23" laneDensity="0.11" occupancy="0.05" waitingTime="0.00" timeLoss="6.90" speed="22.20" speedRelative="0.80" departed="0" arrived="12" entered="12" left="0" laneChangedFrom="0" laneChangedTo="0" flow="17.24"/>
        <edge id="97561122#0" sampledSeconds="551.49" traveltime="33.61" overlapTraveltime="34.95" density="0.57" overlapDensity="0.60" laneDensity="0.29" occupancy="0.15" waitingTime="111.00" timeLoss="184.80" speed="10.69" speedRelative="0.64" departed="16" arrived="0" entered="0" left="16" laneChangedFrom="0" laneChangedTo="0" flow="22.67"/>
        <edge id="97561122#3" sampledSeconds="137.35" traveltime="8.14" overlapTraveltime="8.61" density="0.46" overlapDensity="0.48" laneDensity="0.23" occupancy="0.11" waitingTime="0.00" timeLoss="23.96" speed="13.74" speedRelative="0.82" departed="1" arrived="1" entered="15" left="15" laneChangedFrom="2" laneChangedTo="2" flow="22.92"/>
        <edge id="97561122#4" sampledSeconds="255.52" traveltime="25.70" overlapTraveltime="26.00" density="0.24" overlapDensity="0.24" laneDensity="0.12" occupancy="0.06" waitingTime="0.00" timeLoss="10.09" speed="16.49" speedRelative="0.99" departed="0" arrived="9" entered="10" left="0" laneChangedFrom="5" laneChangedTo="5" flow="14.16"/>
    </interval>
</meandata>
