<?xml version="1.0" encoding="UTF-8"?>

<!-- generated on 2026-03-16T19:48:25.941817+00:00 by Eclipse SUMO sumo 1.26.0
<sumoConfiguration xmlns:xsi="http://www.w3.org/2001/XMLSchema-instance" xsi:noNamespaceSchemaLocation="http://sumo.dlr.de/xsd/sumoConfiguration.xsd">

    <input>
        <net-file value="C:\Users\pc\Desktop\Agent Carrefour Project\sumo\osm.net.xml"/>
        <route-files value="C:\Users\pc\Desktop\Agent Carrefour Project\sumo\osm.passenger.trips.xml"/>
        <additional-files value="C:\Users\pc\Desktop\Agent Carrefour Project\sumo\osm.poly.xml.gz,C:\Users\pc\Desktop\Agent Carrefour Project\sumo\output.add.xml"/>
    </input>

    <output>
        <tripinfo-output value="C:\Users\pc\Desktop\Agent Carrefour Project\sumo\tripinfos.xml"/>
        <statistic-output value="C:\Users\pc\Desktop\Agent Carrefour Project\sumo\stats.xml"/>
    </output>

    <processing>
        <ignore-route-errors value="true"/>
        <tls.actuated.jam-threshold value="30"/>
    </processing>

    <routing>
        <device.rerouting.adaptation-steps value="18"/>
        <device.rerouting.adaptation-interval value="10"/>
    </routing>

    <report>
        <verbose value="true"/>
        <duration-log.statistics value="true"/>
        <no-step-log value="true"/>
    </report>

    <traci_server>
        <remote-port value="49841"/>
    </traci_server>

    <gui_only>
        <gui-settings-file value="C:\Users\pc\Desktop\Agent Carrefour Project\sumo\osm.view.xml"/>
        <start value="true"/>
    </gui_only>

</sumoConfiguration>
-->

<meandata xmlns:xsi="http://www.w3.org/2001/XMLSchema-instance" xsi:noNamespaceSchemaLocation="http://sumo.dlr.de/xsd/meandata_file.xsd">
    <interval begin="0.00" end="3600.00" id="wizard_example">
        <edge id="-215135068" sampledSeconds="0.00" departed="0" arrived="0" entered="0" left="0" laneChangedFrom="0" laneChangedTo="0"/>
        <edge id="-414519478" sampledSeconds="48.96" traveltime="7.79" overlapTraveltime="8.16" density="0.14" overlapDensity="0.15" laneDensity="0.14" occupancy="0.07" waitingTime="0.00" timeLoss="7.58" speed="11.86" speedRelative="0.85" departed="0" arrived="6" entered="6" left="0" laneChangedFrom="0" laneChangedTo="0" flow="6.00"/>
        <edge id="1312222682#1" sampledSeconds="311.86" traveltime="20.60" overlapTraveltime="20.79" density="0.18" overlapDensity="0.18" laneDensity="0.09" occupancy="0.04" waitingTime="0.00" timeLoss="42.65" speed="23.12" speedRelative="0.83" departed="0" arrived="15" entered="15" left="0" laneChangedFrom="0" laneChangedTo="0" flow="15.00"/>
        <edge id="1312222683#0" sampledSeconds="600.63" traveltime="23.21" overlapTraveltime="24.29" density="0.34" overlapDensity="0.36" laneDensity="0.17" occupancy="0.09" waitingTime="63.00" timeLoss="165.67" speed="19.44" speedRelative="0.70" departed="25" arrived="0" entered="0" left="25" laneChangedFrom="1" laneChangedTo="1" flow="24.73"/>
        <edge id="215078584#0" sampledSeconds="111.77" traveltime="8.86" overlapTraveltime="9.65" density="0.20" overlapDensity="0.22" laneDensity="0.10" occupancy="0.05" waitingTime="14.00" timeLoss="46.33" speed="15.07" speedRelative="0.54" departed="12" arrived="0" entered="0" left="12" laneChangedFrom="0" laneChangedTo="0" flow="11.56"/>
        <edge id="215135062#0" sampledSeconds="750.88" traveltime="46.06" overlapTraveltime="47.37" density="0.37" overlapDensity="0.38" laneDensity="0.18" occupancy="0.09" waitingTime="141.00" timeLoss="218.05" speed="11.68" speedRelative="0.70" departed="16" arrived="0" entered="0" left="16" laneChangedFrom="4" laneChangedTo="4" flow="15.85"/>
        <edge id="215135062#3" sampledSeconds="332.10" traveltime="25.26" overlapTraveltime="25.59" density="0.24" overlapDensity="0.25" laneDensity="0.12" occupancy="0.06" waitingTime="0.00" timeLoss="28.13" speed="14.87" speedRelative="0.89" departed="0" arrived="13" entered="13" left="0" laneChangedFrom="1" laneChangedTo="1" flow="13.00"/>
        <edge id="215135068" sampledSeconds="18.18" traveltime="8.89" overlapTraveltime="9.26" density="0.04" overlapDensity="0.05" laneDensity="0.04" occupancy="0.02" waitingTime="0.00" timeLoss="3.01" speed="12.61" speedRelative="0.91" departed="0" arrived="2" entered="2" left="0" laneChangedFrom="0" laneChangedTo="0" flow="2.00"/>
        <edge id="414519478" sampledSeconds="0.00" departed="0" arrived="0" entered="0" left="0" laneChangedFrom="0" laneChangedTo="0"/>
        <edge id="708510054#0" sampledSeconds="108.55" traveltime="4.39" overlapTraveltime="4.72" density="0.49" overlapDensity="0.53" laneDensity="0.24" occupancy="0.12" waitingTime="0.00" timeLoss="54.54" speed="13.20" speedRelative="0.48" departed="0" arrived="3" entered="23" left="20" laneChangedFrom="1" laneChangedTo="1" flow="23.00"/>
        <edge id="708510054#1" sampledSeconds="61.21" traveltime="3.24" overlapTraveltime="3.44" density="0.22" overlapDensity="0.24" laneDensity="0.11" occupancy="0.06" waitingTime="0.00" timeLoss="10.11" speed="22.35" speedRelative="0.80" departed="0" arrived="17" entered="18" left="0" laneChangedFrom="0" laneChangedTo="0" flow="17.88"/>
        <edge id="97561122#0" sampledSeconds="727.41" traveltime="33.79" overlapTraveltime="35.12" density="0.53" overlapDensity="0.55" laneDensity="0.26" occupancy="0.13" waitingTime="151.00" timeLoss="249.26" speed="10.64" speedRelative="0.64" departed="21" arrived="0" entered="0" left="21" laneChangedFrom="0" laneChangedTo="0" flow="20.71"/>
        <edge id="97561122#3" sampledSeconds="239.23" traveltime="8.49" overlapTraveltime="8.92" density="0.56" overlapDensity="0.59" laneDensity="0.28" occupancy="0.14" waitingTime="0.00" timeLoss="48.73" speed="13.26" speedRelative="0.80" departed="4" arrived="2" entered="23" left="25" laneChangedFrom="3" laneChangedTo="3" flow="26.82"/>
        <edge id="97561122#4" sampledSeconds="500.93" traveltime="26.10" overlapTraveltime="26.40" density="0.33" overlapDensity="0.33" laneDensity="0.16" occupancy="0.08" waitingTime="0.00" timeLoss="20.01" speed="16.24" speedRelative="0.97" departed="0" arrived="19" entered="19" left="0" laneChangedFrom="7" laneChangedTo="7" flow="19.00"/>
    </interval>
    <interval begin="3600.00" end="3601.00" id="wizard_example">
        <edge id="-215135068" sampledSeconds="0.00" departed="0" arrived="0" entered="0" left="0" laneChangedFrom="0" laneChangedTo="0"/>
        <edge id="-414519478" sampledSeconds="0.00" departed="0" arrived="0" entered="0" left="0" laneChangedFrom="0" laneChangedTo="0"/>
        <edge id="1312222682#1" sampledSeconds="0.00" departed="0" arrived="0" entered="0" left="0" laneChangedFrom="0" laneChangedTo="0"/>
        <edge id="1312222683#0" sampledSeconds="0.00" departed="0" arrived="0" entered="0" left="0" laneChangedFrom="0" laneChangedTo="0"/>
        <edge id="215078584#0" sampledSeconds="0.00" departed="0" arrived="0" entered="0" left="0" laneChangedFrom="0" laneChangedTo="0"/>
        <edge id="215135062#0" sampledSeconds="0.00" departed="0" arrived="0" entered="0" left="0" laneChangedFrom="0" laneChangedTo="0"/>
        <edge id="215135062#3" sampledSeconds="0.00" departed="0" arrived="0" entered="0" left="0" laneChangedFrom="0" laneChangedTo="0"/>
        <edge id="215135068" sampledSeconds="0.00" departed="0" arrived="0" entered="0" left="0" laneChangedFrom="0" laneChangedTo="0"/>
        <edge id="414519478" sampledSeconds="0.00" departed="0" arrived="0" entered="0" left="0" laneChangedFrom="0" laneChangedTo="0"/>
        <edge id="708510054#0" sampledSeconds="0.00" departed="0" arrived="0" entered="0" left="0" laneChangedFrom="0" laneChangedTo="0"/>
        <edge id="708510054#1" sampledSeconds="0.52" traveltime="2.75" overlapTraveltime="2.94" density="4.58" overlapDensity="7.24" laneDensity="2.29" occupancy="1.48" waitingTime="0.00" timeLoss="0.02" speed="26.14" speedRelative="0.94" departed="0" arrived="1" entered="0" left="0" laneChangedFrom="0" laneChangedTo="0" flow="431.44"/>
        <edge id="97561122#0" sampledSeconds="0.00" departed="0" arrived="0" entered="0" left="0" laneChangedFrom="0" laneChangedTo="0"/>
        <edge id="97561122#3" sampledSeconds="0.00" departed="0" arrived="0" entered="0" left="0" laneChangedFrom="0" laneChangedTo="0"/>
        <edge id="97561122#4" sampledSeconds="0.00" departed="0" arrived="0" entered="0" left="0" laneChangedFrom="0" laneChangedTo="0"/>
    </interval>
</meandata>
