<?xml version="1.0" encoding="UTF-8"?>

<!-- generated on 2026-03-11T13:40:49.549303+00:00 by Eclipse SUMO GUI 1.26.0
<sumoConfiguration xmlns:xsi="http://www.w3.org/2001/XMLSchema-instance" xsi:noNamespaceSchemaLocation="http://sumo.dlr.de/xsd/sumoConfiguration.xsd">

    <input>
        <net-file value="C:\Users\pc\Desktop\Agent Carrefour Projet\sumo\osm.net.xml"/>
        <route-files value="C:\Users\pc\Desktop\Agent Carrefour Projet\sumo\osm.passenger.trips.xml"/>
        <additional-files value="C:\Users\pc\Desktop\Agent Carrefour Projet\sumo\osm.poly.xml.gz,C:\Users\pc\Desktop\Agent Carrefour Projet\sumo\output.add.xml"/>
    </input>

    <output>
        <tripinfo-output value="C:\Users\pc\Desktop\Agent Carrefour Projet\sumo\tripinfos.xml"/>
        <statistic-output value="C:\Users\pc\Desktop\Agent Carrefour Projet\sumo\stats.xml"/>
    </output>

    <processing>
        <ignore-route-errors value="true"/>
        <tls.actuated.jam-threshold value="30"/>
    </processing>

    <routing>
        <device.rerouting.adaptation-steps value="18"/>
        <device.rerouting.adaptation-interval value="10"/>
    </routing>

    <report>
        <verbose value="true"/>
        <duration-log.statistics value="true"/>
        <no-step-log value="true"/>
    </report>

    <traci_server>
        <remote-port value="57754"/>
    </traci_server>

    <gui_only>
        <gui-settings-file value="C:\Users\pc\Desktop\Agent Carrefour Projet\sumo\osm.view.xml"/>
        <start value="true"/>
    </gui_only>

</sumoConfiguration>
-->

<tripinfos xmlns:xsi="http://www.w3.org/2001/XMLSchema-instance" xsi:noNamespaceSchemaLocation="http://sumo.dlr.de/xsd/tripinfo_file.xsd">
    <tripinfo id="veh0" depart="0.00" departLane="215135062#0_1" departPos="5.10" departSpeed="17.67" departDelay="0.00" arrival="74.00" arrivalLane="-414519478_0" arrivalPos="91.81" arrivalSpeed="13.63" duration="74.00" routeLength="767.63" waitingTime="16.00" waitingCount="1" stopTime="0.00" timeLoss="26.81" rerouteNo="1" devices="tripinfo_veh0 routing_veh0" vType="veh_passenger" speedFactor="1.06" vaporized=""/>
    <tripinfo id="veh1" depart="47.00" departLane="97561122#0_0" departPos="5.10" departSpeed="15.64" departDelay="0.82" arrival="107.00" arrivalLane="-414519478_0" arrivalPos="91.81" arrivalSpeed="12.49" duration="60.00" routeLength="602.88" waitingTime="9.00" waitingCount="1" stopTime="0.00" timeLoss="18.77" rerouteNo="1" devices="tripinfo_veh1 routing_veh1" vType="veh_passenger" speedFactor="0.94" vaporized=""/>
    <tripinfo id="veh2" depart="93.00" departLane="1312222683#0_0" departPos="5.10" departSpeed="28.07" departDelay="0.64" arrival="126.00" arrivalLane="215135068_0" arrivalPos="111.80" arrivalSpeed="13.65" duration="33.00" routeLength="666.28" waitingTime="0.00" waitingCount="0" stopTime="0.00" timeLoss="4.15" rerouteNo="1" devices="tripinfo_veh2 routing_veh2" vType="veh_passenger" speedFactor="1.01" vaporized=""/>
    <tripinfo id="veh3" depart="139.00" departLane="1312222683#0_0" departPos="5.10" departSpeed="30.08" departDelay="0.46" arrival="171.00" arrivalLane="708510054#0_0" arrivalPos="57.31" arrivalSpeed="19.82" duration="32.00" routeLength="545.42" waitingTime="3.00" waitingCount="1" stopTime="0.00" timeLoss="13.25" rerouteNo="0" devices="tripinfo_veh3 routing_veh3" vType="veh_passenger" speedFactor="1.08" vaporized=""/>
    <tripinfo id="veh4" depart="185.00" departLane="97561122#0_0" departPos="5.10" departSpeed="17.18" departDelay="0.28" arrival="235.00" arrivalLane="-414519478_0" arrivalPos="91.81" arrivalSpeed="13.90" duration="50.00" routeLength="602.88" waitingTime="2.00" waitingCount="1" stopTime="0.00" timeLoss="12.46" rerouteNo="1" devices="tripinfo_veh4 routing_veh4" vType="veh_passenger" speedFactor="1.03" vaporized=""/>
    <tripinfo id="veh5" depart="231.00" departLane="97561122#0_0" departPos="5.10" departSpeed="13.85" departDelay="0.10" arrival="291.00" arrivalLane="708510054#1_0" arrivalPos="71.99" arrivalSpeed="23.06" duration="60.00" routeLength="518.19" waitingTime="16.00" waitingCount="1" stopTime="0.00" timeLoss="24.89" rerouteNo="1" devices="tripinfo_veh5 routing_veh5" vType="veh_passenger" speedFactor="0.83" vaporized=""/>
    <tripinfo id="veh6" depart="278.00" departLane="215078584#0_0" departPos="5.10" departSpeed="29.05" departDelay="0.92" arrival="316.00" arrivalLane="1312222682#1_0" arrivalPos="475.62" arrivalSpeed="28.24" duration="38.00" routeLength="636.86" waitingTime="2.00" waitingCount="1" stopTime="0.00" timeLoss="15.45" rerouteNo="0" devices="tripinfo_veh6 routing_veh6" vType="veh_passenger" speedFactor="1.05" vaporized=""/>
    <tripinfo id="veh7" depart="324.00" departLane="97561122#0_0" departPos="5.10" departSpeed="14.77" departDelay="0.74" arrival="363.00" arrivalLane="708510054#1_0" arrivalPos="71.99" arrivalSpeed="22.86" duration="39.00" routeLength="518.19" waitingTime="0.00" waitingCount="0" stopTime="0.00" timeLoss="6.41" rerouteNo="1" devices="tripinfo_veh7 routing_veh7" vType="veh_passenger" speedFactor="0.89" vaporized=""/>
    <tripinfo id="veh8" depart="370.00" departLane="97561122#0_0" departPos="5.10" departSpeed="15.63" departDelay="0.56" arrival="422.00" arrivalLane="708510054#1_0" arrivalPos="71.99" arrivalSpeed="25.05" duration="52.00" routeLength="518.19" waitingTime="11.00" waitingCount="1" stopTime="0.00" timeLoss="21.36" rerouteNo="1" devices="tripinfo_veh8 routing_veh8" vType="veh_passenger" speedFactor="0.94" vaporized=""/>
    <tripinfo id="veh9" depart="416.00" departLane="97561122#0_0" departPos="5.10" departSpeed="14.28" departDelay="0.38" arrival="455.00" arrivalLane="708510054#1_0" arrivalPos="71.99" arrivalSpeed="23.04" duration="39.00" routeLength="518.19" waitingTime="0.00" waitingCount="0" stopTime="0.00" timeLoss="5.51" rerouteNo="1" devices="tripinfo_veh9 routing_veh9" vType="veh_passenger" speedFactor="0.86" vaporized=""/>
    <tripinfo id="veh10" depart="462.00" departLane="97561122#0_0" departPos="5.10" departSpeed="18.18" departDelay="0.20" arrival="513.00" arrivalLane="708510054#0_0" arrivalPos="57.31" arrivalSpeed="17.00" duration="51.00" routeLength="431.74" waitingTime="19.00" waitingCount="1" stopTime="0.00" timeLoss="27.91" rerouteNo="0" devices="tripinfo_veh10 routing_veh10" vType="veh_passenger" speedFactor="1.09" vaporized=""/>
    <tripinfo id="veh11" depart="508.00" departLane="1312222683#0_0" departPos="5.10" departSpeed="28.51" departDelay="0.02" arrival="553.00" arrivalLane="215135062#3_0" arrivalPos="375.34" arrivalSpeed="16.61" duration="45.00" routeLength="846.53" waitingTime="0.00" waitingCount="0" stopTime="0.00" timeLoss="5.19" rerouteNo="0" devices="tripinfo_veh11 routing_veh11" vType="veh_passenger" speedFactor="1.03" vaporized=""/>
    <tripinfo id="veh12" depart="555.00" departLane="1312222683#0_0" departPos="5.10" departSpeed="29.09" departDelay="0.84" arrival="609.00" arrivalLane="215135062#3_0" arrivalPos="375.34" arrivalSpeed="16.92" duration="54.00" routeLength="846.53" waitingTime="5.00" waitingCount="1" stopTime="0.00" timeLoss="14.88" rerouteNo="0" devices="tripinfo_veh12 routing_veh12" vType="veh_passenger" speedFactor="1.05" vaporized=""/>
    <tripinfo id="veh13" depart="601.00" departLane="215135062#0_0" departPos="5.10" departSpeed="18.72" departDelay="0.66" arrival="659.00" arrivalLane="215135062#3_0" arrivalPos="375.34" arrivalSpeed="17.70" duration="58.00" routeLength="943.81" waitingTime="0.00" waitingCount="0" stopTime="0.00" timeLoss="6.76" rerouteNo="0" devices="tripinfo_veh13 routing_veh13" vType="veh_passenger" speedFactor="1.12" vaporized=""/>
    <tripinfo id="veh14" depart="647.00" departLane="215078584#0_0" departPos="5.10" departSpeed="27.54" departDelay="0.48" arrival="671.00" arrivalLane="1312222682#1_0" arrivalPos="475.62" arrivalSpeed="26.40" duration="24.00" routeLength="636.86" waitingTime="0.00" waitingCount="0" stopTime="0.00" timeLoss="0.54" rerouteNo="0" devices="tripinfo_veh14 routing_veh14" vType="veh_passenger" speedFactor="0.99" vaporized=""/>
    <tripinfo id="veh15" depart="693.00" departLane="1312222683#0_1" departPos="5.10" departSpeed="25.75" departDelay="0.29" arrival="754.00" arrivalLane="97561122#4_0" arrivalPos="423.69" arrivalSpeed="15.22" duration="61.00" routeLength="1039.57" waitingTime="0.00" waitingCount="0" stopTime="0.00" timeLoss="4.11" rerouteNo="1" devices="tripinfo_veh15 routing_veh15" vType="veh_passenger" speedFactor="0.93" vaporized=""/>
    <tripinfo id="veh16" depart="739.00" departLane="215135062#0_1" departPos="5.10" departSpeed="14.64" departDelay="0.11" arrival="808.00" arrivalLane="708510054#1_1" arrivalPos="71.99" arrivalSpeed="24.20" duration="69.00" routeLength="713.11" waitingTime="13.00" waitingCount="1" stopTime="0.00" timeLoss="23.10" rerouteNo="1" devices="tripinfo_veh16 routing_veh16" vType="veh_passenger" speedFactor="0.88" vaporized=""/>
    <tripinfo id="veh17" depart="786.00" departLane="1312222683#0_0" departPos="5.10" departSpeed="26.15" departDelay="0.93" arrival="817.00" arrivalLane="708510054#1_1" arrivalPos="71.99" arrivalSpeed="25.55" duration="31.00" routeLength="631.87" waitingTime="0.00" waitingCount="0" stopTime="0.00" timeLoss="5.92" rerouteNo="1" devices="tripinfo_veh17 routing_veh17" vType="veh_passenger" speedFactor="0.94" vaporized=""/>
    <tripinfo id="veh18" depart="832.00" departLane="1312222683#0_0" departPos="5.10" departSpeed="26.01" departDelay="0.75" arrival="881.00" arrivalLane="215135062#3_0" arrivalPos="375.34" arrivalSpeed="15.49" duration="49.00" routeLength="846.53" waitingTime="0.00" waitingCount="0" stopTime="0.00" timeLoss="5.19" rerouteNo="0" devices="tripinfo_veh18 routing_veh18" vType="veh_passenger" speedFactor="0.94" vaporized=""/>
    <tripinfo id="veh19" depart="878.00" departLane="215135062#0_1" departPos="5.10" departSpeed="19.31" departDelay="0.57" arrival="935.00" arrivalLane="708510054#1_1" arrivalPos="71.99" arrivalSpeed="24.54" duration="57.00" routeLength="713.11" waitingTime="11.00" waitingCount="1" stopTime="0.00" timeLoss="22.44" rerouteNo="1" devices="tripinfo_veh19 routing_veh19" vType="veh_passenger" speedFactor="1.16" vaporized=""/>
    <tripinfo id="veh20" depart="924.00" departLane="97561122#0_0" departPos="5.10" departSpeed="16.97" departDelay="0.39" arrival="967.00" arrivalLane="708510054#1_0" arrivalPos="71.99" arrivalSpeed="23.98" duration="43.00" routeLength="518.19" waitingTime="5.00" waitingCount="1" stopTime="0.00" timeLoss="15.07" rerouteNo="1" devices="tripinfo_veh20 routing_veh20" vType="veh_passenger" speedFactor="1.02" vaporized=""/>
    <tripinfo id="veh21" depart="970.00" departLane="1312222683#0_1" departPos="5.10" departSpeed="28.06" departDelay="0.21" arrival="1022.00" arrivalLane="-414519478_0" arrivalPos="91.81" arrivalSpeed="13.97" duration="52.00" routeLength="702.42" waitingTime="9.00" waitingCount="1" stopTime="0.00" timeLoss="18.51" rerouteNo="1" devices="tripinfo_veh21 routing_veh21" vType="veh_passenger" speedFactor="1.01" vaporized=""/>
    <tripinfo id="veh22" depart="1016.00" departLane="215078584#0_0" departPos="5.10" departSpeed="27.09" departDelay="0.03" arrival="1056.00" arrivalLane="1312222682#1_0" arrivalPos="475.62" arrivalSpeed="26.07" duration="40.00" routeLength="636.86" waitingTime="5.00" waitingCount="1" stopTime="0.00" timeLoss="16.30" rerouteNo="0" devices="tripinfo_veh22 routing_veh22" vType="veh_passenger" speedFactor="0.97" vaporized=""/>
    <tripinfo id="veh23" depart="1063.00" departLane="1312222683#0_1" departPos="5.10" departSpeed="24.71" departDelay="0.85" arrival="1139.00" arrivalLane="97561122#4_0" arrivalPos="423.69" arrivalSpeed="13.73" duration="76.00" routeLength="1039.57" waitingTime="9.00" waitingCount="1" stopTime="0.00" timeLoss="17.65" rerouteNo="1" devices="tripinfo_veh23 routing_veh23" vType="veh_passenger" speedFactor="0.89" vaporized=""/>
    <tripinfo id="veh24" depart="1109.00" departLane="215135062#0_0" departPos="5.10" departSpeed="13.76" departDelay="0.67" arrival="1179.00" arrivalLane="1312222682#1_0" arrivalPos="475.62" arrivalSpeed="22.45" duration="70.00" routeLength="1029.75" waitingTime="0.00" waitingCount="0" stopTime="0.00" timeLoss="7.24" rerouteNo="0" devices="tripinfo_veh24 routing_veh24" vType="veh_passenger" speedFactor="0.83" vaporized=""/>
    <tripinfo id="veh25" depart="1155.00" departLane="215078584#0_0" departPos="5.10" departSpeed="24.24" departDelay="0.49" arrival="1183.00" arrivalLane="1312222682#1_0" arrivalPos="475.62" arrivalSpeed="23.11" duration="28.00" routeLength="636.86" waitingTime="0.00" waitingCount="0" stopTime="0.00" timeLoss="0.94" rerouteNo="0" devices="tripinfo_veh25 routing_veh25" vType="veh_passenger" speedFactor="0.87" vaporized=""/>
    <tripinfo id="veh26" depart="1201.00" departLane="1312222683#0_0" departPos="5.10" departSpeed="25.48" departDelay="0.31" arrival="1236.00" arrivalLane="708510054#1_0" arrivalPos="71.99" arrivalSpeed="24.75" duration="35.00" routeLength="631.87" waitingTime="0.00" waitingCount="0" stopTime="0.00" timeLoss="9.43" rerouteNo="1" devices="tripinfo_veh26 routing_veh26" vType="veh_passenger" speedFactor="0.92" vaporized=""/>
    <tripinfo id="veh27" depart="1247.00" departLane="97561122#3_0" departPos="5.10" departSpeed="0.00" departDelay="0.13" arrival="1287.00" arrivalLane="97561122#4_0" arrivalPos="423.69" arrivalSpeed="15.54" duration="40.00" routeLength="546.17" waitingTime="0.00" waitingCount="0" stopTime="0.00" timeLoss="4.71" rerouteNo="0" devices="tripinfo_veh27 routing_veh27" vType="veh_passenger" speedFactor="0.95" vaporized=""/>
    <tripinfo id="veh28" depart="1294.00" departLane="1312222683#0_0" departPos="5.10" departSpeed="31.44" departDelay="0.95" arrival="1332.00" arrivalLane="708510054#1_0" arrivalPos="71.99" arrivalSpeed="27.23" duration="38.00" routeLength="631.87" waitingTime="5.00" waitingCount="1" stopTime="0.00" timeLoss="17.28" rerouteNo="1" devices="tripinfo_veh28 routing_veh28" vType="veh_passenger" speedFactor="1.13" vaporized=""/>
    <tripinfo id="veh29" depart="1340.00" departLane="1312222683#0_0" departPos="5.10" departSpeed="25.87" departDelay="0.77" arrival="1389.00" arrivalLane="215135062#3_0" arrivalPos="375.34" arrivalSpeed="15.02" duration="49.00" routeLength="846.53" waitingTime="0.00" waitingCount="0" stopTime="0.00" timeLoss="5.22" rerouteNo="0" devices="tripinfo_veh29 routing_veh29" vType="veh_passenger" speedFactor="0.93" vaporized=""/>
    <tripinfo id="veh30" depart="1386.00" departLane="215078584#0_0" departPos="5.10" departSpeed="32.74" departDelay="0.59" arrival="1425.00" arrivalLane="97561122#4_0" arrivalPos="423.69" arrivalSpeed="19.08" duration="39.00" routeLength="695.70" waitingTime="0.00" waitingCount="0" stopTime="0.00" timeLoss="5.00" rerouteNo="1" devices="tripinfo_veh30 routing_veh30" vType="veh_passenger" speedFactor="1.18" vaporized=""/>
    <tripinfo id="veh31" depart="1432.00" departLane="97561122#0_1" departPos="5.10" departSpeed="19.24" departDelay="0.41" arrival="1490.00" arrivalLane="1312222682#1_1" arrivalPos="475.62" arrivalSpeed="32.00" duration="58.00" routeLength="865.02" waitingTime="12.00" waitingCount="1" stopTime="0.00" timeLoss="21.74" rerouteNo="0" devices="tripinfo_veh31 routing_veh31" vType="veh_passenger" speedFactor="1.15" vaporized=""/>
    <tripinfo id="veh32" depart="1478.00" departLane="215135062#0_0" departPos="5.10" departSpeed="16.76" departDelay="0.23" arrival="1555.00" arrivalLane="1312222682#1_0" arrivalPos="475.62" arrivalSpeed="27.79" duration="77.00" routeLength="1029.75" waitingTime="14.00" waitingCount="1" stopTime="0.00" timeLoss="25.63" rerouteNo="0" devices="tripinfo_veh32 routing_veh32" vType="veh_passenger" speedFactor="1.01" vaporized=""/>
    <tripinfo id="veh33" depart="1524.00" departLane="97561122#0_0" departPos="5.10" departSpeed="19.53" departDelay="0.05" arrival="1597.00" arrivalLane="97561122#4_0" arrivalPos="423.69" arrivalSpeed="18.48" duration="73.00" routeLength="940.03" waitingTime="15.00" waitingCount="1" stopTime="0.00" timeLoss="24.74" rerouteNo="1" devices="tripinfo_veh33 routing_veh33" vType="veh_passenger" speedFactor="1.17" vaporized=""/>
    <tripinfo id="veh34" depart="1571.00" departLane="215135062#0_0" departPos="5.10" departSpeed="16.58" departDelay="0.87" arrival="1651.00" arrivalLane="1312222682#1_0" arrivalPos="475.62" arrivalSpeed="26.71" duration="80.00" routeLength="1029.75" waitingTime="18.00" waitingCount="1" stopTime="0.00" timeLoss="28.37" rerouteNo="0" devices="tripinfo_veh34 routing_veh34" vType="veh_passenger" speedFactor="0.99" vaporized=""/>
    <tripinfo id="veh35" depart="1617.00" departLane="97561122#0_0" departPos="5.10" departSpeed="17.00" departDelay="0.69" arrival="1697.00" arrivalLane="97561122#4_0" arrivalPos="423.69" arrivalSpeed="16.94" duration="80.00" routeLength="940.03" waitingTime="16.00" waitingCount="1" stopTime="0.00" timeLoss="23.87" rerouteNo="1" devices="tripinfo_veh35 routing_veh35" vType="veh_passenger" speedFactor="1.02" vaporized=""/>
    <tripinfo id="veh36" depart="1663.00" departLane="97561122#0_0" departPos="5.10" departSpeed="16.22" departDelay="0.51" arrival="1731.00" arrivalLane="97561122#4_0" arrivalPos="423.69" arrivalSpeed="15.82" duration="68.00" routeLength="940.03" waitingTime="1.00" waitingCount="1" stopTime="0.00" timeLoss="9.64" rerouteNo="1" devices="tripinfo_veh36 routing_veh36" vType="veh_passenger" speedFactor="0.97" vaporized=""/>
    <tripinfo id="veh37" depart="1709.00" departLane="215135062#0_1" departPos="5.10" departSpeed="19.67" departDelay="0.33" arrival="1774.00" arrivalLane="215135068_0" arrivalPos="111.80" arrivalSpeed="16.16" duration="65.00" routeLength="747.52" waitingTime="13.00" waitingCount="1" stopTime="0.00" timeLoss="24.80" rerouteNo="1" devices="tripinfo_veh37 routing_veh37" vType="veh_passenger" speedFactor="1.18" vaporized=""/>
    <tripinfo id="veh38" depart="1755.00" departLane="1312222683#0_1" departPos="5.10" departSpeed="30.62" departDelay="0.15" arrival="1807.00" arrivalLane="97561122#4_0" arrivalPos="423.69" arrivalSpeed="18.27" duration="52.00" routeLength="1039.57" waitingTime="0.00" waitingCount="0" stopTime="0.00" timeLoss="3.62" rerouteNo="1" devices="tripinfo_veh38 routing_veh38" vType="veh_passenger" speedFactor="1.10" vaporized=""/>
    <tripinfo id="veh39" depart="1802.00" departLane="215078584#0_0" departPos="5.10" departSpeed="25.02" departDelay="0.97" arrival="1829.00" arrivalLane="1312222682#1_0" arrivalPos="475.62" arrivalSpeed="24.42" duration="27.00" routeLength="636.86" waitingTime="0.00" waitingCount="0" stopTime="0.00" timeLoss="0.67" rerouteNo="0" devices="tripinfo_veh39 routing_veh39" vType="veh_passenger" speedFactor="0.90" vaporized=""/>
    <tripinfo id="veh40" depart="1848.00" departLane="215135062#0_1" departPos="5.10" departSpeed="17.18" departDelay="0.79" arrival="1894.00" arrivalLane="708510054#1_1" arrivalPos="71.99" arrivalSpeed="25.85" duration="46.00" routeLength="713.11" waitingTime="0.00" waitingCount="0" stopTime="0.00" timeLoss="6.83" rerouteNo="1" devices="tripinfo_veh40 routing_veh40" vType="veh_passenger" speedFactor="1.03" vaporized=""/>
    <tripinfo id="veh41" depart="1894.00" departLane="1312222683#0_0" departPos="5.10" departSpeed="26.59" departDelay="0.61" arrival="1956.00" arrivalLane="215135062#3_0" arrivalPos="375.34" arrivalSpeed="15.78" duration="62.00" routeLength="846.53" waitingTime="10.00" waitingCount="1" stopTime="0.00" timeLoss="19.79" rerouteNo="0" devices="tripinfo_veh41 routing_veh41" vType="veh_passenger" speedFactor="0.96" vaporized=""/>
    <tripinfo id="veh42" depart="1940.00" departLane="1312222683#0_1" departPos="5.10" departSpeed="30.33" departDelay="0.43" arrival="1995.00" arrivalLane="97561122#4_0" arrivalPos="423.69" arrivalSpeed="18.19" duration="55.00" routeLength="1039.57" waitingTime="0.00" waitingCount="0" stopTime="0.00" timeLoss="7.13" rerouteNo="1" devices="tripinfo_veh42 routing_veh42" vType="veh_passenger" speedFactor="1.09" vaporized=""/>
    <tripinfo id="veh43" depart="1986.00" departLane="97561122#0_0" departPos="5.10" departSpeed="17.30" departDelay="0.25" arrival="2032.00" arrivalLane="-414519478_0" arrivalPos="91.81" arrivalSpeed="13.70" duration="46.00" routeLength="602.88" waitingTime="0.00" waitingCount="0" stopTime="0.00" timeLoss="8.75" rerouteNo="1" devices="tripinfo_veh43 routing_veh43" vType="veh_passenger" speedFactor="1.04" vaporized=""/>
    <tripinfo id="veh44" depart="2032.00" departLane="1312222683#0_0" departPos="5.10" departSpeed="28.99" departDelay="0.06" arrival="2068.00" arrivalLane="708510054#1_0" arrivalPos="71.99" arrivalSpeed="27.29" duration="36.00" routeLength="631.87" waitingTime="2.00" waitingCount="1" stopTime="0.00" timeLoss="13.37" rerouteNo="1" devices="tripinfo_veh44 routing_veh44" vType="veh_passenger" speedFactor="1.04" vaporized=""/>
    <tripinfo id="veh45" depart="2079.00" departLane="97561122#0_0" departPos="5.10" departSpeed="18.14" departDelay="0.88" arrival="2114.00" arrivalLane="708510054#0_0" arrivalPos="57.31" arrivalSpeed="16.36" duration="35.00" routeLength="431.74" waitingTime="3.00" waitingCount="1" stopTime="0.00" timeLoss="11.86" rerouteNo="0" devices="tripinfo_veh45 routing_veh45" vType="veh_passenger" speedFactor="1.09" vaporized=""/>
    <tripinfo id="veh46" depart="2125.00" departLane="215135062#0_1" departPos="5.10" departSpeed="16.63" departDelay="0.70" arrival="2183.00" arrivalLane="97561122#3_1" arrivalPos="113.27" arrivalSpeed="16.43" duration="58.00" routeLength="666.78" waitingTime="8.00" waitingCount="1" stopTime="0.00" timeLoss="16.30" rerouteNo="0" devices="tripinfo_veh46 routing_veh46" vType="veh_passenger" speedFactor="1.00" vaporized=""/>
    <tripinfo id="veh47" depart="2171.00" departLane="97561122#0_1" departPos="5.10" departSpeed="15.01" departDelay="0.52" arrival="2230.00" arrivalLane="1312222682#1_1" arrivalPos="475.62" arrivalSpeed="24.07" duration="59.00" routeLength="865.02" waitingTime="2.00" waitingCount="1" stopTime="0.00" timeLoss="12.33" rerouteNo="0" devices="tripinfo_veh47 routing_veh47" vType="veh_passenger" speedFactor="0.90" vaporized=""/>
    <tripinfo id="veh48" depart="2217.00" departLane="1312222683#0_0" departPos="5.10" departSpeed="24.36" departDelay="0.34" arrival="2279.00" arrivalLane="215135062#3_0" arrivalPos="375.34" arrivalSpeed="13.70" duration="62.00" routeLength="846.53" waitingTime="6.00" waitingCount="1" stopTime="0.00" timeLoss="15.37" rerouteNo="0" devices="tripinfo_veh48 routing_veh48" vType="veh_passenger" speedFactor="0.88" vaporized=""/>
    <tripinfo id="veh49" depart="2263.00" departLane="215078584#0_1" departPos="5.10" departSpeed="23.62" departDelay="0.16" arrival="2313.00" arrivalLane="215135062#3_0" arrivalPos="375.34" arrivalSpeed="13.06" duration="50.00" routeLength="536.88" waitingTime="6.00" waitingCount="1" stopTime="0.00" timeLoss="14.38" rerouteNo="0" devices="tripinfo_veh49 routing_veh49" vType="veh_passenger" speedFactor="0.85" vaporized=""/>
    <tripinfo id="veh50" depart="2310.00" departLane="97561122#0_1" departPos="5.10" departSpeed="14.25" departDelay="0.98" arrival="2364.00" arrivalLane="1312222682#1_1" arrivalPos="475.62" arrivalSpeed="22.47" duration="54.00" routeLength="865.02" waitingTime="0.00" waitingCount="0" stopTime="0.00" timeLoss="4.97" rerouteNo="0" devices="tripinfo_veh50 routing_veh50" vType="veh_passenger" speedFactor="0.85" vaporized=""/>
    <tripinfo id="veh51" depart="2356.00" departLane="1312222683#0_0" departPos="5.10" departSpeed="32.47" departDelay="0.80" arrival="2401.00" arrivalLane="215135062#3_0" arrivalPos="375.34" arrivalSpeed="19.13" duration="45.00" routeLength="846.53" waitingTime="1.00" waitingCount="1" stopTime="0.00" timeLoss="10.37" rerouteNo="0" devices="tripinfo_veh51 routing_veh51" vType="veh_passenger" speedFactor="1.17" vaporized=""/>
    <tripinfo id="veh52" depart="2402.00" departLane="215078584#0_1" departPos="5.10" departSpeed="28.25" departDelay="0.62" arrival="2436.00" arrivalLane="215135062#3_1" arrivalPos="375.34" arrivalSpeed="16.45" duration="34.00" routeLength="536.88" waitingTime="0.00" waitingCount="0" stopTime="0.00" timeLoss="3.61" rerouteNo="0" devices="tripinfo_veh52 routing_veh52" vType="veh_passenger" speedFactor="1.02" vaporized=""/>
</tripinfos>
